+ 0 0 1 tcp 40 ------- 0 0.0 1.0 0 0
- 0 0 1 tcp 40 ------- 0 0.0 1.0 0 0
r 0.10032 0 1 tcp 40 ------- 0 0.0 1.0 0 0
+ 0.10032 1 0 ack 40 ------- 0 1.0 0.0 0 1
- 0.10032 1 0 ack 40 ------- 0 1.0 0.0 0 1
r 0.20064 1 0 ack 40 ------- 0 1.0 0.0 0 1
+ 0.20064 0 1 tcp 1040 ------- 0 0.0 1.0 1 2
- 0.20064 0 1 tcp 1040 ------- 0 0.0 1.0 1 2
+ 0.20064 0 1 tcp 1040 ------- 0 0.0 1.0 2 3
- 0.20896 0 1 tcp 1040 ------- 0 0.0 1.0 2 3
r 0.30896 0 1 tcp 1040 ------- 0 0.0 1.0 1 2
+ 0.30896 1 0 ack 40 ------- 0 1.0 0.0 1 4
- 0.30896 1 0 ack 40 ------- 0 1.0 0.0 1 4
r 0.31728 0 1 tcp 1040 ------- 0 0.0 1.0 2 3
+ 0.31728 1 0 ack 40 ------- 0 1.0 0.0 2 5
- 0.31728 1 0 ack 40 ------- 0 1.0 0.0 2 5
r 0.40928 1 0 ack 40 ------- 0 1.0 0.0 1 4
+ 0.40928 0 1 tcp 1040 ------- 0 0.0 1.0 3 6
- 0.40928 0 1 tcp 1040 ------- 0 0.0 1.0 3 6
+ 0.40928 0 1 tcp 1040 ------- 0 0.0 1.0 4 7
r 0.4176 1 0 ack 40 ------- 0 1.0 0.0 2 5
+ 0.4176 0 1 tcp 1040 ------- 0 0.0 1.0 5 8
+ 0.4176 0 1 tcp 1040 ------- 0 0.0 1.0 6 9
- 0.4176 0 1 tcp 1040 ------- 0 0.0 1.0 4 7
- 0.42592 0 1 tcp 1040 ------- 0 0.0 1.0 5 8
- 0.43424 0 1 tcp 1040 ------- 0 0.0 1.0 6 9
r 0.5176 0 1 tcp 1040 ------- 0 0.0 1.0 3 6
+ 0.5176 1 0 ack 40 ------- 0 1.0 0.0 3 10
- 0.5176 1 0 ack 40 ------- 0 1.0 0.0 3 10
r 0.52592 0 1 tcp 1040 ------- 0 0.0 1.0 4 7
+ 0.52592 1 0 ack 40 ------- 0 1.0 0.0 4 11
- 0.52592 1 0 ack 40 ------- 0 1.0 0.0 4 11
r 0.53424 0 1 tcp 1040 ------- 0 0.0 1.0 5 8
+ 0.53424 1 0 ack 40 ------- 0 1.0 0.0 5 12
- 0.53424 1 0 ack 40 ------- 0 1.0 0.0 5 12
r 0.54256 0 1 tcp 1040 ------- 0 0.0 1.0 6 9
+ 0.54256 1 0 ack 40 ------- 0 1.0 0.0 6 13
- 0.54256 1 0 ack 40 ------- 0 1.0 0.0 6 13
r 0.61792 1 0 ack 40 ------- 0 1.0 0.0 3 10
+ 0.61792 0 1 tcp 1040 ------- 0 0.0 1.0 7 14
- 0.61792 0 1 tcp 1040 ------- 0 0.0 1.0 7 14
+ 0.61792 0 1 tcp 1040 ------- 0 0.0 1.0 8 15
r 0.62624 1 0 ack 40 ------- 0 1.0 0.0 4 11
+ 0.62624 0 1 tcp 1040 ------- 0 0.0 1.0 9 16
+ 0.62624 0 1 tcp 1040 ------- 0 0.0 1.0 10 17
- 0.62624 0 1 tcp 1040 ------- 0 0.0 1.0 8 15
r 0.63456 1 0 ack 40 ------- 0 1.0 0.0 5 12
+ 0.63456 0 1 tcp 1040 ------- 0 0.0 1.0 11 18
+ 0.63456 0 1 tcp 1040 ------- 0 0.0 1.0 12 19
- 0.63456 0 1 tcp 1040 ------- 0 0.0 1.0 9 16
r 0.64288 1 0 ack 40 ------- 0 1.0 0.0 6 13
+ 0.64288 0 1 tcp 1040 ------- 0 0.0 1.0 13 20
+ 0.64288 0 1 tcp 1040 ------- 0 0.0 1.0 14 21
- 0.64288 0 1 tcp 1040 ------- 0 0.0 1.0 10 17
- 0.6512 0 1 tcp 1040 ------- 0 0.0 1.0 11 18
- 0.65952 0 1 tcp 1040 ------- 0 0.0 1.0 12 19
- 0.66784 0 1 tcp 1040 ------- 0 0.0 1.0 13 20
- 0.67616 0 1 tcp 1040 ------- 0 0.0 1.0 14 21
r 0.72624 0 1 tcp 1040 ------- 0 0.0 1.0 7 14
+ 0.72624 1 0 ack 40 ------- 0 1.0 0.0 7 22
- 0.72624 1 0 ack 40 ------- 0 1.0 0.0 7 22
r 0.73456 0 1 tcp 1040 ------- 0 0.0 1.0 8 15
+ 0.73456 1 0 ack 40 ------- 0 1.0 0.0 8 23
- 0.73456 1 0 ack 40 ------- 0 1.0 0.0 8 23
r 0.74288 0 1 tcp 1040 ------- 0 0.0 1.0 9 16
+ 0.74288 1 0 ack 40 ------- 0 1.0 0.0 9 24
- 0.74288 1 0 ack 40 ------- 0 1.0 0.0 9 24
r 0.7512 0 1 tcp 1040 ------- 0 0.0 1.0 10 17
+ 0.7512 1 0 ack 40 ------- 0 1.0 0.0 10 25
- 0.7512 1 0 ack 40 ------- 0 1.0 0.0 10 25
r 0.75952 0 1 tcp 1040 ------- 0 0.0 1.0 11 18
+ 0.75952 1 0 ack 40 ------- 0 1.0 0.0 11 26
- 0.75952 1 0 ack 40 ------- 0 1.0 0.0 11 26
r 0.76784 0 1 tcp 1040 ------- 0 0.0 1.0 12 19
+ 0.76784 1 0 ack 40 ------- 0 1.0 0.0 12 27
- 0.76784 1 0 ack 40 ------- 0 1.0 0.0 12 27
r 0.77616 0 1 tcp 1040 ------- 0 0.0 1.0 13 20
+ 0.77616 1 0 ack 40 ------- 0 1.0 0.0 13 28
- 0.77616 1 0 ack 40 ------- 0 1.0 0.0 13 28
r 0.78448 0 1 tcp 1040 ------- 0 0.0 1.0 14 21
+ 0.78448 1 0 ack 40 ------- 0 1.0 0.0 14 29
- 0.78448 1 0 ack 40 ------- 0 1.0 0.0 14 29
r 0.82656 1 0 ack 40 ------- 0 1.0 0.0 7 22
+ 0.82656 0 1 tcp 1040 ------- 0 0.0 1.0 15 30
- 0.82656 0 1 tcp 1040 ------- 0 0.0 1.0 15 30
+ 0.82656 0 1 tcp 1040 ------- 0 0.0 1.0 16 31
r 0.83488 1 0 ack 40 ------- 0 1.0 0.0 8 23
+ 0.83488 0 1 tcp 1040 ------- 0 0.0 1.0 17 32
+ 0.83488 0 1 tcp 1040 ------- 0 0.0 1.0 18 33
- 0.83488 0 1 tcp 1040 ------- 0 0.0 1.0 16 31
r 0.8432 1 0 ack 40 ------- 0 1.0 0.0 9 24
+ 0.8432 0 1 tcp 1040 ------- 0 0.0 1.0 19 34
+ 0.8432 0 1 tcp 1040 ------- 0 0.0 1.0 20 35
- 0.8432 0 1 tcp 1040 ------- 0 0.0 1.0 17 32
r 0.85152 1 0 ack 40 ------- 0 1.0 0.0 10 25
+ 0.85152 0 1 tcp 1040 ------- 0 0.0 1.0 21 36
+ 0.85152 0 1 tcp 1040 ------- 0 0.0 1.0 22 37
- 0.85152 0 1 tcp 1040 ------- 0 0.0 1.0 18 33
r 0.85984 1 0 ack 40 ------- 0 1.0 0.0 11 26
+ 0.85984 0 1 tcp 1040 ------- 0 0.0 1.0 23 38
+ 0.85984 0 1 tcp 1040 ------- 0 0.0 1.0 24 39
- 0.85984 0 1 tcp 1040 ------- 0 0.0 1.0 19 34
r 0.86816 1 0 ack 40 ------- 0 1.0 0.0 12 27
+ 0.86816 0 1 tcp 1040 ------- 0 0.0 1.0 25 40
+ 0.86816 0 1 tcp 1040 ------- 0 0.0 1.0 26 41
- 0.86816 0 1 tcp 1040 ------- 0 0.0 1.0 20 35
r 0.87648 1 0 ack 40 ------- 0 1.0 0.0 13 28
+ 0.87648 0 1 tcp 1040 ------- 0 0.0 1.0 27 42
+ 0.87648 0 1 tcp 1040 ------- 0 0.0 1.0 28 43
- 0.87648 0 1 tcp 1040 ------- 0 0.0 1.0 21 36
r 0.8848 1 0 ack 40 ------- 0 1.0 0.0 14 29
+ 0.8848 0 1 tcp 1040 ------- 0 0.0 1.0 29 44
+ 0.8848 0 1 tcp 1040 ------- 0 0.0 1.0 30 45
- 0.8848 0 1 tcp 1040 ------- 0 0.0 1.0 22 37
- 0.89312 0 1 tcp 1040 ------- 0 0.0 1.0 23 38
- 0.90144 0 1 tcp 1040 ------- 0 0.0 1.0 24 39
- 0.90976 0 1 tcp 1040 ------- 0 0.0 1.0 25 40
- 0.91808 0 1 tcp 1040 ------- 0 0.0 1.0 26 41
- 0.9264 0 1 tcp 1040 ------- 0 0.0 1.0 27 42
- 0.93472 0 1 tcp 1040 ------- 0 0.0 1.0 28 43
r 0.93488 0 1 tcp 1040 ------- 0 0.0 1.0 15 30
+ 0.93488 1 0 ack 40 ------- 0 1.0 0.0 15 46
- 0.93488 1 0 ack 40 ------- 0 1.0 0.0 15 46
- 0.94304 0 1 tcp 1040 ------- 0 0.0 1.0 29 44
r 0.9432 0 1 tcp 1040 ------- 0 0.0 1.0 16 31
+ 0.9432 1 0 ack 40 ------- 0 1.0 0.0 16 47
- 0.9432 1 0 ack 40 ------- 0 1.0 0.0 16 47
- 0.95136 0 1 tcp 1040 ------- 0 0.0 1.0 30 45
r 0.95152 0 1 tcp 1040 ------- 0 0.0 1.0 17 32
+ 0.95152 1 0 ack 40 ------- 0 1.0 0.0 17 48
- 0.95152 1 0 ack 40 ------- 0 1.0 0.0 17 48
r 0.95984 0 1 tcp 1040 ------- 0 0.0 1.0 18 33
+ 0.95984 1 0 ack 40 ------- 0 1.0 0.0 18 49
- 0.95984 1 0 ack 40 ------- 0 1.0 0.0 18 49
r 0.96816 0 1 tcp 1040 ------- 0 0.0 1.0 19 34
+ 0.96816 1 0 ack 40 ------- 0 1.0 0.0 19 50
- 0.96816 1 0 ack 40 ------- 0 1.0 0.0 19 50
r 0.97648 0 1 tcp 1040 ------- 0 0.0 1.0 20 35
+ 0.97648 1 0 ack 40 ------- 0 1.0 0.0 20 51
- 0.97648 1 0 ack 40 ------- 0 1.0 0.0 20 51
r 0.9848 0 1 tcp 1040 ------- 0 0.0 1.0 21 36
+ 0.9848 1 0 ack 40 ------- 0 1.0 0.0 21 52
- 0.9848 1 0 ack 40 ------- 0 1.0 0.0 21 52
r 0.99312 0 1 tcp 1040 ------- 0 0.0 1.0 22 37
+ 0.99312 1 0 ack 40 ------- 0 1.0 0.0 22 53
- 0.99312 1 0 ack 40 ------- 0 1.0 0.0 22 53
r 1.00144 0 1 tcp 1040 ------- 0 0.0 1.0 23 38
+ 1.00144 1 0 ack 40 ------- 0 1.0 0.0 23 54
- 1.00144 1 0 ack 40 ------- 0 1.0 0.0 23 54
r 1.00976 0 1 tcp 1040 ------- 0 0.0 1.0 24 39
+ 1.00976 1 0 ack 40 ------- 0 1.0 0.0 24 55
- 1.00976 1 0 ack 40 ------- 0 1.0 0.0 24 55
r 1.01808 0 1 tcp 1040 ------- 0 0.0 1.0 25 40
+ 1.01808 1 0 ack 40 ------- 0 1.0 0.0 25 56
- 1.01808 1 0 ack 40 ------- 0 1.0 0.0 25 56
r 1.0264 0 1 tcp 1040 ------- 0 0.0 1.0 26 41
+ 1.0264 1 0 ack 40 ------- 0 1.0 0.0 26 57
- 1.0264 1 0 ack 40 ------- 0 1.0 0.0 26 57
r 1.03472 0 1 tcp 1040 ------- 0 0.0 1.0 27 42
+ 1.03472 1 0 ack 40 ------- 0 1.0 0.0 27 58
- 1.03472 1 0 ack 40 ------- 0 1.0 0.0 27 58
r 1.0352 1 0 ack 40 ------- 0 1.0 0.0 15 46
+ 1.0352 0 1 tcp 1040 ------- 0 0.0 1.0 31 59
- 1.0352 0 1 tcp 1040 ------- 0 0.0 1.0 31 59
+ 1.0352 0 1 tcp 1040 ------- 0 0.0 1.0 32 60
r 1.04304 0 1 tcp 1040 ------- 0 0.0 1.0 28 43
+ 1.04304 1 0 ack 40 ------- 0 1.0 0.0 28 61
- 1.04304 1 0 ack 40 ------- 0 1.0 0.0 28 61
r 1.04352 1 0 ack 40 ------- 0 1.0 0.0 16 47
+ 1.04352 0 1 tcp 1040 ------- 0 0.0 1.0 33 62
+ 1.04352 0 1 tcp 1040 ------- 0 0.0 1.0 34 63
- 1.04352 0 1 tcp 1040 ------- 0 0.0 1.0 32 60
r 1.05136 0 1 tcp 1040 ------- 0 0.0 1.0 29 44
+ 1.05136 1 0 ack 40 ------- 0 1.0 0.0 29 64
- 1.05136 1 0 ack 40 ------- 0 1.0 0.0 29 64
r 1.05184 1 0 ack 40 ------- 0 1.0 0.0 17 48
+ 1.05184 0 1 tcp 1040 ------- 0 0.0 1.0 35 65
+ 1.05184 0 1 tcp 1040 ------- 0 0.0 1.0 36 66
- 1.05184 0 1 tcp 1040 ------- 0 0.0 1.0 33 62
r 1.05968 0 1 tcp 1040 ------- 0 0.0 1.0 30 45
+ 1.05968 1 0 ack 40 ------- 0 1.0 0.0 30 67
- 1.05968 1 0 ack 40 ------- 0 1.0 0.0 30 67
r 1.06016 1 0 ack 40 ------- 0 1.0 0.0 18 49
+ 1.06016 0 1 tcp 1040 ------- 0 0.0 1.0 37 68
+ 1.06016 0 1 tcp 1040 ------- 0 0.0 1.0 38 69
- 1.06016 0 1 tcp 1040 ------- 0 0.0 1.0 34 63
r 1.06848 1 0 ack 40 ------- 0 1.0 0.0 19 50
+ 1.06848 0 1 tcp 1040 ------- 0 0.0 1.0 39 70
- 1.06848 0 1 tcp 1040 ------- 0 0.0 1.0 35 65
r 1.0768 1 0 ack 40 ------- 0 1.0 0.0 20 51
+ 1.0768 0 1 tcp 1040 ------- 0 0.0 1.0 40 71
- 1.0768 0 1 tcp 1040 ------- 0 0.0 1.0 36 66
r 1.08512 1 0 ack 40 ------- 0 1.0 0.0 21 52
+ 1.08512 0 1 tcp 1040 ------- 0 0.0 1.0 41 72
- 1.08512 0 1 tcp 1040 ------- 0 0.0 1.0 37 68
r 1.09344 1 0 ack 40 ------- 0 1.0 0.0 22 53
+ 1.09344 0 1 tcp 1040 ------- 0 0.0 1.0 42 73
- 1.09344 0 1 tcp 1040 ------- 0 0.0 1.0 38 69
r 1.10176 1 0 ack 40 ------- 0 1.0 0.0 23 54
+ 1.10176 0 1 tcp 1040 ------- 0 0.0 1.0 43 74
- 1.10176 0 1 tcp 1040 ------- 0 0.0 1.0 39 70
r 1.11008 1 0 ack 40 ------- 0 1.0 0.0 24 55
+ 1.11008 0 1 tcp 1040 ------- 0 0.0 1.0 44 75
- 1.11008 0 1 tcp 1040 ------- 0 0.0 1.0 40 71
r 1.1184 1 0 ack 40 ------- 0 1.0 0.0 25 56
+ 1.1184 0 1 tcp 1040 ------- 0 0.0 1.0 45 76
- 1.1184 0 1 tcp 1040 ------- 0 0.0 1.0 41 72
r 1.12672 1 0 ack 40 ------- 0 1.0 0.0 26 57
+ 1.12672 0 1 tcp 1040 ------- 0 0.0 1.0 46 77
- 1.12672 0 1 tcp 1040 ------- 0 0.0 1.0 42 73
r 1.13504 1 0 ack 40 ------- 0 1.0 0.0 27 58
+ 1.13504 0 1 tcp 1040 ------- 0 0.0 1.0 47 78
- 1.13504 0 1 tcp 1040 ------- 0 0.0 1.0 43 74
r 1.14336 1 0 ack 40 ------- 0 1.0 0.0 28 61
+ 1.14336 0 1 tcp 1040 ------- 0 0.0 1.0 48 79
- 1.14336 0 1 tcp 1040 ------- 0 0.0 1.0 44 75
r 1.14352 0 1 tcp 1040 ------- 0 0.0 1.0 31 59
+ 1.14352 1 0 ack 40 ------- 0 1.0 0.0 31 80
- 1.14352 1 0 ack 40 ------- 0 1.0 0.0 31 80
r 1.15168 1 0 ack 40 ------- 0 1.0 0.0 29 64
+ 1.15168 0 1 tcp 1040 ------- 0 0.0 1.0 49 81
- 1.15168 0 1 tcp 1040 ------- 0 0.0 1.0 45 76
r 1.15184 0 1 tcp 1040 ------- 0 0.0 1.0 32 60
+ 1.15184 1 0 ack 40 ------- 0 1.0 0.0 32 82
- 1.15184 1 0 ack 40 ------- 0 1.0 0.0 32 82
r 1.16 1 0 ack 40 ------- 0 1.0 0.0 30 67
+ 1.16 0 1 tcp 1040 ------- 0 0.0 1.0 50 83
- 1.16 0 1 tcp 1040 ------- 0 0.0 1.0 46 77
r 1.16016 0 1 tcp 1040 ------- 0 0.0 1.0 33 62
+ 1.16016 1 0 ack 40 ------- 0 1.0 0.0 33 84
- 1.16016 1 0 ack 40 ------- 0 1.0 0.0 33 84
- 1.16832 0 1 tcp 1040 ------- 0 0.0 1.0 47 78
r 1.16848 0 1 tcp 1040 ------- 0 0.0 1.0 34 63
+ 1.16848 1 0 ack 40 ------- 0 1.0 0.0 34 85
- 1.16848 1 0 ack 40 ------- 0 1.0 0.0 34 85
- 1.17664 0 1 tcp 1040 ------- 0 0.0 1.0 48 79
r 1.1768 0 1 tcp 1040 ------- 0 0.0 1.0 35 65
+ 1.1768 1 0 ack 40 ------- 0 1.0 0.0 35 86
- 1.1768 1 0 ack 40 ------- 0 1.0 0.0 35 86
- 1.18496 0 1 tcp 1040 ------- 0 0.0 1.0 49 81
r 1.18512 0 1 tcp 1040 ------- 0 0.0 1.0 36 66
+ 1.18512 1 0 ack 40 ------- 0 1.0 0.0 36 87
- 1.18512 1 0 ack 40 ------- 0 1.0 0.0 36 87
- 1.19328 0 1 tcp 1040 ------- 0 0.0 1.0 50 83
r 1.19344 0 1 tcp 1040 ------- 0 0.0 1.0 37 68
+ 1.19344 1 0 ack 40 ------- 0 1.0 0.0 37 88
- 1.19344 1 0 ack 40 ------- 0 1.0 0.0 37 88
r 1.20176 0 1 tcp 1040 ------- 0 0.0 1.0 38 69
+ 1.20176 1 0 ack 40 ------- 0 1.0 0.0 38 89
- 1.20176 1 0 ack 40 ------- 0 1.0 0.0 38 89
r 1.21008 0 1 tcp 1040 ------- 0 0.0 1.0 39 70
+ 1.21008 1 0 ack 40 ------- 0 1.0 0.0 39 90
- 1.21008 1 0 ack 40 ------- 0 1.0 0.0 39 90
r 1.2184 0 1 tcp 1040 ------- 0 0.0 1.0 40 71
+ 1.2184 1 0 ack 40 ------- 0 1.0 0.0 40 91
- 1.2184 1 0 ack 40 ------- 0 1.0 0.0 40 91
r 1.22672 0 1 tcp 1040 ------- 0 0.0 1.0 41 72
+ 1.22672 1 0 ack 40 ------- 0 1.0 0.0 41 92
- 1.22672 1 0 ack 40 ------- 0 1.0 0.0 41 92
r 1.23504 0 1 tcp 1040 ------- 0 0.0 1.0 42 73
+ 1.23504 1 0 ack 40 ------- 0 1.0 0.0 42 93
- 1.23504 1 0 ack 40 ------- 0 1.0 0.0 42 93
r 1.24336 0 1 tcp 1040 ------- 0 0.0 1.0 43 74
+ 1.24336 1 0 ack 40 ------- 0 1.0 0.0 43 94
- 1.24336 1 0 ack 40 ------- 0 1.0 0.0 43 94
r 1.24384 1 0 ack 40 ------- 0 1.0 0.0 31 80
+ 1.24384 0 1 tcp 1040 ------- 0 0.0 1.0 51 95
- 1.24384 0 1 tcp 1040 ------- 0 0.0 1.0 51 95
r 1.25168 0 1 tcp 1040 ------- 0 0.0 1.0 44 75
+ 1.25168 1 0 ack 40 ------- 0 1.0 0.0 44 96
- 1.25168 1 0 ack 40 ------- 0 1.0 0.0 44 96
r 1.25216 1 0 ack 40 ------- 0 1.0 0.0 32 82
+ 1.25216 0 1 tcp 1040 ------- 0 0.0 1.0 52 97
- 1.25216 0 1 tcp 1040 ------- 0 0.0 1.0 52 97
r 1.26 0 1 tcp 1040 ------- 0 0.0 1.0 45 76
+ 1.26 1 0 ack 40 ------- 0 1.0 0.0 45 98
- 1.26 1 0 ack 40 ------- 0 1.0 0.0 45 98
r 1.26048 1 0 ack 40 ------- 0 1.0 0.0 33 84
+ 1.26048 0 1 tcp 1040 ------- 0 0.0 1.0 53 99
- 1.26048 0 1 tcp 1040 ------- 0 0.0 1.0 53 99
r 1.26832 0 1 tcp 1040 ------- 0 0.0 1.0 46 77
+ 1.26832 1 0 ack 40 ------- 0 1.0 0.0 46 100
- 1.26832 1 0 ack 40 ------- 0 1.0 0.0 46 100
r 1.2688 1 0 ack 40 ------- 0 1.0 0.0 34 85
+ 1.2688 0 1 tcp 1040 ------- 0 0.0 1.0 54 101
- 1.2688 0 1 tcp 1040 ------- 0 0.0 1.0 54 101
r 1.27664 0 1 tcp 1040 ------- 0 0.0 1.0 47 78
+ 1.27664 1 0 ack 40 ------- 0 1.0 0.0 47 102
- 1.27664 1 0 ack 40 ------- 0 1.0 0.0 47 102
r 1.27712 1 0 ack 40 ------- 0 1.0 0.0 35 86
+ 1.27712 0 1 tcp 1040 ------- 0 0.0 1.0 55 103
- 1.27712 0 1 tcp 1040 ------- 0 0.0 1.0 55 103
r 1.28496 0 1 tcp 1040 ------- 0 0.0 1.0 48 79
+ 1.28496 1 0 ack 40 ------- 0 1.0 0.0 48 104
- 1.28496 1 0 ack 40 ------- 0 1.0 0.0 48 104
r 1.28544 1 0 ack 40 ------- 0 1.0 0.0 36 87
+ 1.28544 0 1 tcp 1040 ------- 0 0.0 1.0 56 105
- 1.28544 0 1 tcp 1040 ------- 0 0.0 1.0 56 105
r 1.29328 0 1 tcp 1040 ------- 0 0.0 1.0 49 81
+ 1.29328 1 0 ack 40 ------- 0 1.0 0.0 49 106
- 1.29328 1 0 ack 40 ------- 0 1.0 0.0 49 106
r 1.29376 1 0 ack 40 ------- 0 1.0 0.0 37 88
+ 1.29376 0 1 tcp 1040 ------- 0 0.0 1.0 57 107
- 1.29376 0 1 tcp 1040 ------- 0 0.0 1.0 57 107
r 1.3016 0 1 tcp 1040 ------- 0 0.0 1.0 50 83
+ 1.3016 1 0 ack 40 ------- 0 1.0 0.0 50 108
- 1.3016 1 0 ack 40 ------- 0 1.0 0.0 50 108
r 1.30208 1 0 ack 40 ------- 0 1.0 0.0 38 89
+ 1.30208 0 1 tcp 1040 ------- 0 0.0 1.0 58 109
- 1.30208 0 1 tcp 1040 ------- 0 0.0 1.0 58 109
r 1.3104 1 0 ack 40 ------- 0 1.0 0.0 39 90
+ 1.3104 0 1 tcp 1040 ------- 0 0.0 1.0 59 110
- 1.3104 0 1 tcp 1040 ------- 0 0.0 1.0 59 110
r 1.31872 1 0 ack 40 ------- 0 1.0 0.0 40 91
+ 1.31872 0 1 tcp 1040 ------- 0 0.0 1.0 60 111
- 1.31872 0 1 tcp 1040 ------- 0 0.0 1.0 60 111
r 1.32704 1 0 ack 40 ------- 0 1.0 0.0 41 92
+ 1.32704 0 1 tcp 1040 ------- 0 0.0 1.0 61 112
- 1.32704 0 1 tcp 1040 ------- 0 0.0 1.0 61 112
r 1.33536 1 0 ack 40 ------- 0 1.0 0.0 42 93
+ 1.33536 0 1 tcp 1040 ------- 0 0.0 1.0 62 113
- 1.33536 0 1 tcp 1040 ------- 0 0.0 1.0 62 113
r 1.34368 1 0 ack 40 ------- 0 1.0 0.0 43 94
+ 1.34368 0 1 tcp 1040 ------- 0 0.0 1.0 63 114
- 1.34368 0 1 tcp 1040 ------- 0 0.0 1.0 63 114
r 1.352 1 0 ack 40 ------- 0 1.0 0.0 44 96
+ 1.352 0 1 tcp 1040 ------- 0 0.0 1.0 64 115
- 1.352 0 1 tcp 1040 ------- 0 0.0 1.0 64 115
r 1.35216 0 1 tcp 1040 ------- 0 0.0 1.0 51 95
+ 1.35216 1 0 ack 40 ------- 0 1.0 0.0 51 116
- 1.35216 1 0 ack 40 ------- 0 1.0 0.0 51 116
r 1.36032 1 0 ack 40 ------- 0 1.0 0.0 45 98
+ 1.36032 0 1 tcp 1040 ------- 0 0.0 1.0 65 117
- 1.36032 0 1 tcp 1040 ------- 0 0.0 1.0 65 117
r 1.36048 0 1 tcp 1040 ------- 0 0.0 1.0 52 97
+ 1.36048 1 0 ack 40 ------- 0 1.0 0.0 52 118
- 1.36048 1 0 ack 40 ------- 0 1.0 0.0 52 118
r 1.36864 1 0 ack 40 ------- 0 1.0 0.0 46 100
+ 1.36864 0 1 tcp 1040 ------- 0 0.0 1.0 66 119
- 1.36864 0 1 tcp 1040 ------- 0 0.0 1.0 66 119
r 1.3688 0 1 tcp 1040 ------- 0 0.0 1.0 53 99
+ 1.3688 1 0 ack 40 ------- 0 1.0 0.0 53 120
- 1.3688 1 0 ack 40 ------- 0 1.0 0.0 53 120
r 1.37696 1 0 ack 40 ------- 0 1.0 0.0 47 102
+ 1.37696 0 1 tcp 1040 ------- 0 0.0 1.0 67 121
- 1.37696 0 1 tcp 1040 ------- 0 0.0 1.0 67 121
r 1.37712 0 1 tcp 1040 ------- 0 0.0 1.0 54 101
+ 1.37712 1 0 ack 40 ------- 0 1.0 0.0 54 122
- 1.37712 1 0 ack 40 ------- 0 1.0 0.0 54 122
r 1.38528 1 0 ack 40 ------- 0 1.0 0.0 48 104
+ 1.38528 0 1 tcp 1040 ------- 0 0.0 1.0 68 123
- 1.38528 0 1 tcp 1040 ------- 0 0.0 1.0 68 123
r 1.38544 0 1 tcp 1040 ------- 0 0.0 1.0 55 103
+ 1.38544 1 0 ack 40 ------- 0 1.0 0.0 55 124
- 1.38544 1 0 ack 40 ------- 0 1.0 0.0 55 124
r 1.3936 1 0 ack 40 ------- 0 1.0 0.0 49 106
+ 1.3936 0 1 tcp 1040 ------- 0 0.0 1.0 69 125
- 1.3936 0 1 tcp 1040 ------- 0 0.0 1.0 69 125
r 1.39376 0 1 tcp 1040 ------- 0 0.0 1.0 56 105
+ 1.39376 1 0 ack 40 ------- 0 1.0 0.0 56 126
- 1.39376 1 0 ack 40 ------- 0 1.0 0.0 56 126
r 1.40192 1 0 ack 40 ------- 0 1.0 0.0 50 108
+ 1.40192 0 1 tcp 1040 ------- 0 0.0 1.0 70 127
- 1.40192 0 1 tcp 1040 ------- 0 0.0 1.0 70 127
r 1.40208 0 1 tcp 1040 ------- 0 0.0 1.0 57 107
+ 1.40208 1 0 ack 40 ------- 0 1.0 0.0 57 128
- 1.40208 1 0 ack 40 ------- 0 1.0 0.0 57 128
r 1.4104 0 1 tcp 1040 ------- 0 0.0 1.0 58 109
+ 1.4104 1 0 ack 40 ------- 0 1.0 0.0 58 129
- 1.4104 1 0 ack 40 ------- 0 1.0 0.0 58 129
r 1.41872 0 1 tcp 1040 ------- 0 0.0 1.0 59 110
+ 1.41872 1 0 ack 40 ------- 0 1.0 0.0 59 130
- 1.41872 1 0 ack 40 ------- 0 1.0 0.0 59 130
r 1.42704 0 1 tcp 1040 ------- 0 0.0 1.0 60 111
+ 1.42704 1 0 ack 40 ------- 0 1.0 0.0 60 131
- 1.42704 1 0 ack 40 ------- 0 1.0 0.0 60 131
r 1.43536 0 1 tcp 1040 ------- 0 0.0 1.0 61 112
+ 1.43536 1 0 ack 40 ------- 0 1.0 0.0 61 132
- 1.43536 1 0 ack 40 ------- 0 1.0 0.0 61 132
r 1.44368 0 1 tcp 1040 ------- 0 0.0 1.0 62 113
+ 1.44368 1 0 ack 40 ------- 0 1.0 0.0 62 133
- 1.44368 1 0 ack 40 ------- 0 1.0 0.0 62 133
r 1.452 0 1 tcp 1040 ------- 0 0.0 1.0 63 114
+ 1.452 1 0 ack 40 ------- 0 1.0 0.0 63 134
- 1.452 1 0 ack 40 ------- 0 1.0 0.0 63 134
r 1.45248 1 0 ack 40 ------- 0 1.0 0.0 51 116
+ 1.45248 0 1 tcp 1040 ------- 0 0.0 1.0 71 135
- 1.45248 0 1 tcp 1040 ------- 0 0.0 1.0 71 135
r 1.46032 0 1 tcp 1040 ------- 0 0.0 1.0 64 115
+ 1.46032 1 0 ack 40 ------- 0 1.0 0.0 64 136
- 1.46032 1 0 ack 40 ------- 0 1.0 0.0 64 136
r 1.4608 1 0 ack 40 ------- 0 1.0 0.0 52 118
+ 1.4608 0 1 tcp 1040 ------- 0 0.0 1.0 72 137
- 1.4608 0 1 tcp 1040 ------- 0 0.0 1.0 72 137
r 1.46864 0 1 tcp 1040 ------- 0 0.0 1.0 65 117
+ 1.46864 1 0 ack 40 ------- 0 1.0 0.0 65 138
- 1.46864 1 0 ack 40 ------- 0 1.0 0.0 65 138
r 1.46912 1 0 ack 40 ------- 0 1.0 0.0 53 120
+ 1.46912 0 1 tcp 1040 ------- 0 0.0 1.0 73 139
- 1.46912 0 1 tcp 1040 ------- 0 0.0 1.0 73 139
r 1.47696 0 1 tcp 1040 ------- 0 0.0 1.0 66 119
+ 1.47696 1 0 ack 40 ------- 0 1.0 0.0 66 140
- 1.47696 1 0 ack 40 ------- 0 1.0 0.0 66 140
r 1.47744 1 0 ack 40 ------- 0 1.0 0.0 54 122
+ 1.47744 0 1 tcp 1040 ------- 0 0.0 1.0 74 141
- 1.47744 0 1 tcp 1040 ------- 0 0.0 1.0 74 141
r 1.48528 0 1 tcp 1040 ------- 0 0.0 1.0 67 121
+ 1.48528 1 0 ack 40 ------- 0 1.0 0.0 67 142
- 1.48528 1 0 ack 40 ------- 0 1.0 0.0 67 142
r 1.48576 1 0 ack 40 ------- 0 1.0 0.0 55 124
+ 1.48576 0 1 tcp 1040 ------- 0 0.0 1.0 75 143
- 1.48576 0 1 tcp 1040 ------- 0 0.0 1.0 75 143
r 1.4936 0 1 tcp 1040 ------- 0 0.0 1.0 68 123
+ 1.4936 1 0 ack 40 ------- 0 1.0 0.0 68 144
- 1.4936 1 0 ack 40 ------- 0 1.0 0.0 68 144
r 1.49408 1 0 ack 40 ------- 0 1.0 0.0 56 126
+ 1.49408 0 1 tcp 1040 ------- 0 0.0 1.0 76 145
- 1.49408 0 1 tcp 1040 ------- 0 0.0 1.0 76 145
r 1.50192 0 1 tcp 1040 ------- 0 0.0 1.0 69 125
+ 1.50192 1 0 ack 40 ------- 0 1.0 0.0 69 146
- 1.50192 1 0 ack 40 ------- 0 1.0 0.0 69 146
r 1.5024 1 0 ack 40 ------- 0 1.0 0.0 57 128
+ 1.5024 0 1 tcp 1040 ------- 0 0.0 1.0 77 147
- 1.5024 0 1 tcp 1040 ------- 0 0.0 1.0 77 147
r 1.51024 0 1 tcp 1040 ------- 0 0.0 1.0 70 127
+ 1.51024 1 0 ack 40 ------- 0 1.0 0.0 70 148
- 1.51024 1 0 ack 40 ------- 0 1.0 0.0 70 148
r 1.51072 1 0 ack 40 ------- 0 1.0 0.0 58 129
+ 1.51072 0 1 tcp 1040 ------- 0 0.0 1.0 78 149
- 1.51072 0 1 tcp 1040 ------- 0 0.0 1.0 78 149
r 1.51904 1 0 ack 40 ------- 0 1.0 0.0 59 130
+ 1.51904 0 1 tcp 1040 ------- 0 0.0 1.0 79 150
- 1.51904 0 1 tcp 1040 ------- 0 0.0 1.0 79 150
r 1.52736 1 0 ack 40 ------- 0 1.0 0.0 60 131
+ 1.52736 0 1 tcp 1040 ------- 0 0.0 1.0 80 151
- 1.52736 0 1 tcp 1040 ------- 0 0.0 1.0 80 151
r 1.53568 1 0 ack 40 ------- 0 1.0 0.0 61 132
+ 1.53568 0 1 tcp 1040 ------- 0 0.0 1.0 81 152
- 1.53568 0 1 tcp 1040 ------- 0 0.0 1.0 81 152
r 1.544 1 0 ack 40 ------- 0 1.0 0.0 62 133
+ 1.544 0 1 tcp 1040 ------- 0 0.0 1.0 82 153
- 1.544 0 1 tcp 1040 ------- 0 0.0 1.0 82 153
r 1.55232 1 0 ack 40 ------- 0 1.0 0.0 63 134
+ 1.55232 0 1 tcp 1040 ------- 0 0.0 1.0 83 154
- 1.55232 0 1 tcp 1040 ------- 0 0.0 1.0 83 154
r 1.56064 1 0 ack 40 ------- 0 1.0 0.0 64 136
+ 1.56064 0 1 tcp 1040 ------- 0 0.0 1.0 84 155
- 1.56064 0 1 tcp 1040 ------- 0 0.0 1.0 84 155
r 1.5608 0 1 tcp 1040 ------- 0 0.0 1.0 71 135
+ 1.5608 1 0 ack 40 ------- 0 1.0 0.0 71 156
- 1.5608 1 0 ack 40 ------- 0 1.0 0.0 71 156
r 1.56896 1 0 ack 40 ------- 0 1.0 0.0 65 138
+ 1.56896 0 1 tcp 1040 ------- 0 0.0 1.0 85 157
- 1.56896 0 1 tcp 1040 ------- 0 0.0 1.0 85 157
r 1.56912 0 1 tcp 1040 ------- 0 0.0 1.0 72 137
+ 1.56912 1 0 ack 40 ------- 0 1.0 0.0 72 158
- 1.56912 1 0 ack 40 ------- 0 1.0 0.0 72 158
r 1.57728 1 0 ack 40 ------- 0 1.0 0.0 66 140
+ 1.57728 0 1 tcp 1040 ------- 0 0.0 1.0 86 159
- 1.57728 0 1 tcp 1040 ------- 0 0.0 1.0 86 159
r 1.57744 0 1 tcp 1040 ------- 0 0.0 1.0 73 139
+ 1.57744 1 0 ack 40 ------- 0 1.0 0.0 73 160
- 1.57744 1 0 ack 40 ------- 0 1.0 0.0 73 160
r 1.5856 1 0 ack 40 ------- 0 1.0 0.0 67 142
+ 1.5856 0 1 tcp 1040 ------- 0 0.0 1.0 87 161
- 1.5856 0 1 tcp 1040 ------- 0 0.0 1.0 87 161
r 1.58576 0 1 tcp 1040 ------- 0 0.0 1.0 74 141
+ 1.58576 1 0 ack 40 ------- 0 1.0 0.0 74 162
- 1.58576 1 0 ack 40 ------- 0 1.0 0.0 74 162
r 1.59392 1 0 ack 40 ------- 0 1.0 0.0 68 144
+ 1.59392 0 1 tcp 1040 ------- 0 0.0 1.0 88 163
- 1.59392 0 1 tcp 1040 ------- 0 0.0 1.0 88 163
r 1.59408 0 1 tcp 1040 ------- 0 0.0 1.0 75 143
+ 1.59408 1 0 ack 40 ------- 0 1.0 0.0 75 164
- 1.59408 1 0 ack 40 ------- 0 1.0 0.0 75 164
r 1.60224 1 0 ack 40 ------- 0 1.0 0.0 69 146
+ 1.60224 0 1 tcp 1040 ------- 0 0.0 1.0 89 165
- 1.60224 0 1 tcp 1040 ------- 0 0.0 1.0 89 165
r 1.6024 0 1 tcp 1040 ------- 0 0.0 1.0 76 145
+ 1.6024 1 0 ack 40 ------- 0 1.0 0.0 76 166
- 1.6024 1 0 ack 40 ------- 0 1.0 0.0 76 166
r 1.61056 1 0 ack 40 ------- 0 1.0 0.0 70 148
+ 1.61056 0 1 tcp 1040 ------- 0 0.0 1.0 90 167
- 1.61056 0 1 tcp 1040 ------- 0 0.0 1.0 90 167
r 1.61072 0 1 tcp 1040 ------- 0 0.0 1.0 77 147
+ 1.61072 1 0 ack 40 ------- 0 1.0 0.0 77 168
- 1.61072 1 0 ack 40 ------- 0 1.0 0.0 77 168
r 1.61904 0 1 tcp 1040 ------- 0 0.0 1.0 78 149
+ 1.61904 1 0 ack 40 ------- 0 1.0 0.0 78 169
- 1.61904 1 0 ack 40 ------- 0 1.0 0.0 78 169
r 1.62736 0 1 tcp 1040 ------- 0 0.0 1.0 79 150
+ 1.62736 1 0 ack 40 ------- 0 1.0 0.0 79 170
- 1.62736 1 0 ack 40 ------- 0 1.0 0.0 79 170
r 1.63568 0 1 tcp 1040 ------- 0 0.0 1.0 80 151
+ 1.63568 1 0 ack 40 ------- 0 1.0 0.0 80 171
- 1.63568 1 0 ack 40 ------- 0 1.0 0.0 80 171
r 1.644 0 1 tcp 1040 ------- 0 0.0 1.0 81 152
+ 1.644 1 0 ack 40 ------- 0 1.0 0.0 81 172
- 1.644 1 0 ack 40 ------- 0 1.0 0.0 81 172
r 1.65232 0 1 tcp 1040 ------- 0 0.0 1.0 82 153
+ 1.65232 1 0 ack 40 ------- 0 1.0 0.0 82 173
- 1.65232 1 0 ack 40 ------- 0 1.0 0.0 82 173
r 1.66064 0 1 tcp 1040 ------- 0 0.0 1.0 83 154
+ 1.66064 1 0 ack 40 ------- 0 1.0 0.0 83 174
- 1.66064 1 0 ack 40 ------- 0 1.0 0.0 83 174
r 1.66112 1 0 ack 40 ------- 0 1.0 0.0 71 156
+ 1.66112 0 1 tcp 1040 ------- 0 0.0 1.0 91 175
- 1.66112 0 1 tcp 1040 ------- 0 0.0 1.0 91 175
r 1.66896 0 1 tcp 1040 ------- 0 0.0 1.0 84 155
+ 1.66896 1 0 ack 40 ------- 0 1.0 0.0 84 176
- 1.66896 1 0 ack 40 ------- 0 1.0 0.0 84 176
r 1.66944 1 0 ack 40 ------- 0 1.0 0.0 72 158
+ 1.66944 0 1 tcp 1040 ------- 0 0.0 1.0 92 177
- 1.66944 0 1 tcp 1040 ------- 0 0.0 1.0 92 177
r 1.67728 0 1 tcp 1040 ------- 0 0.0 1.0 85 157
+ 1.67728 1 0 ack 40 ------- 0 1.0 0.0 85 178
- 1.67728 1 0 ack 40 ------- 0 1.0 0.0 85 178
r 1.67776 1 0 ack 40 ------- 0 1.0 0.0 73 160
+ 1.67776 0 1 tcp 1040 ------- 0 0.0 1.0 93 179
- 1.67776 0 1 tcp 1040 ------- 0 0.0 1.0 93 179
r 1.6856 0 1 tcp 1040 ------- 0 0.0 1.0 86 159
+ 1.6856 1 0 ack 40 ------- 0 1.0 0.0 86 180
- 1.6856 1 0 ack 40 ------- 0 1.0 0.0 86 180
r 1.68608 1 0 ack 40 ------- 0 1.0 0.0 74 162
+ 1.68608 0 1 tcp 1040 ------- 0 0.0 1.0 94 181
- 1.68608 0 1 tcp 1040 ------- 0 0.0 1.0 94 181
r 1.69392 0 1 tcp 1040 ------- 0 0.0 1.0 87 161
+ 1.69392 1 0 ack 40 ------- 0 1.0 0.0 87 182
- 1.69392 1 0 ack 40 ------- 0 1.0 0.0 87 182
r 1.6944 1 0 ack 40 ------- 0 1.0 0.0 75 164
+ 1.6944 0 1 tcp 1040 ------- 0 0.0 1.0 95 183
- 1.6944 0 1 tcp 1040 ------- 0 0.0 1.0 95 183
r 1.70224 0 1 tcp 1040 ------- 0 0.0 1.0 88 163
+ 1.70224 1 0 ack 40 ------- 0 1.0 0.0 88 184
- 1.70224 1 0 ack 40 ------- 0 1.0 0.0 88 184
r 1.70272 1 0 ack 40 ------- 0 1.0 0.0 76 166
+ 1.70272 0 1 tcp 1040 ------- 0 0.0 1.0 96 185
- 1.70272 0 1 tcp 1040 ------- 0 0.0 1.0 96 185
r 1.71056 0 1 tcp 1040 ------- 0 0.0 1.0 89 165
+ 1.71056 1 0 ack 40 ------- 0 1.0 0.0 89 186
- 1.71056 1 0 ack 40 ------- 0 1.0 0.0 89 186
r 1.71104 1 0 ack 40 ------- 0 1.0 0.0 77 168
+ 1.71104 0 1 tcp 1040 ------- 0 0.0 1.0 97 187
- 1.71104 0 1 tcp 1040 ------- 0 0.0 1.0 97 187
r 1.71888 0 1 tcp 1040 ------- 0 0.0 1.0 90 167
+ 1.71888 1 0 ack 40 ------- 0 1.0 0.0 90 188
- 1.71888 1 0 ack 40 ------- 0 1.0 0.0 90 188
r 1.71936 1 0 ack 40 ------- 0 1.0 0.0 78 169
+ 1.71936 0 1 tcp 1040 ------- 0 0.0 1.0 98 189
- 1.71936 0 1 tcp 1040 ------- 0 0.0 1.0 98 189
r 1.72768 1 0 ack 40 ------- 0 1.0 0.0 79 170
+ 1.72768 0 1 tcp 1040 ------- 0 0.0 1.0 99 190
- 1.72768 0 1 tcp 1040 ------- 0 0.0 1.0 99 190
r 1.736 1 0 ack 40 ------- 0 1.0 0.0 80 171
+ 1.736 0 1 tcp 1040 ------- 0 0.0 1.0 100 191
- 1.736 0 1 tcp 1040 ------- 0 0.0 1.0 100 191
r 1.74432 1 0 ack 40 ------- 0 1.0 0.0 81 172
+ 1.74432 0 1 tcp 1040 ------- 0 0.0 1.0 101 192
- 1.74432 0 1 tcp 1040 ------- 0 0.0 1.0 101 192
r 1.75264 1 0 ack 40 ------- 0 1.0 0.0 82 173
+ 1.75264 0 1 tcp 1040 ------- 0 0.0 1.0 102 193
- 1.75264 0 1 tcp 1040 ------- 0 0.0 1.0 102 193
r 1.76096 1 0 ack 40 ------- 0 1.0 0.0 83 174
+ 1.76096 0 1 tcp 1040 ------- 0 0.0 1.0 103 194
- 1.76096 0 1 tcp 1040 ------- 0 0.0 1.0 103 194
r 1.76928 1 0 ack 40 ------- 0 1.0 0.0 84 176
+ 1.76928 0 1 tcp 1040 ------- 0 0.0 1.0 104 195
- 1.76928 0 1 tcp 1040 ------- 0 0.0 1.0 104 195
r 1.76944 0 1 tcp 1040 ------- 0 0.0 1.0 91 175
+ 1.76944 1 0 ack 40 ------- 0 1.0 0.0 91 196
- 1.76944 1 0 ack 40 ------- 0 1.0 0.0 91 196
r 1.7776 1 0 ack 40 ------- 0 1.0 0.0 85 178
+ 1.7776 0 1 tcp 1040 ------- 0 0.0 1.0 105 197
- 1.7776 0 1 tcp 1040 ------- 0 0.0 1.0 105 197
r 1.77776 0 1 tcp 1040 ------- 0 0.0 1.0 92 177
+ 1.77776 1 0 ack 40 ------- 0 1.0 0.0 92 198
- 1.77776 1 0 ack 40 ------- 0 1.0 0.0 92 198
r 1.78592 1 0 ack 40 ------- 0 1.0 0.0 86 180
+ 1.78592 0 1 tcp 1040 ------- 0 0.0 1.0 106 199
- 1.78592 0 1 tcp 1040 ------- 0 0.0 1.0 106 199
r 1.78608 0 1 tcp 1040 ------- 0 0.0 1.0 93 179
+ 1.78608 1 0 ack 40 ------- 0 1.0 0.0 93 200
- 1.78608 1 0 ack 40 ------- 0 1.0 0.0 93 200
r 1.79424 1 0 ack 40 ------- 0 1.0 0.0 87 182
+ 1.79424 0 1 tcp 1040 ------- 0 0.0 1.0 107 201
- 1.79424 0 1 tcp 1040 ------- 0 0.0 1.0 107 201
r 1.7944 0 1 tcp 1040 ------- 0 0.0 1.0 94 181
+ 1.7944 1 0 ack 40 ------- 0 1.0 0.0 94 202
- 1.7944 1 0 ack 40 ------- 0 1.0 0.0 94 202
r 1.80256 1 0 ack 40 ------- 0 1.0 0.0 88 184
+ 1.80256 0 1 tcp 1040 ------- 0 0.0 1.0 108 203
- 1.80256 0 1 tcp 1040 ------- 0 0.0 1.0 108 203
r 1.80272 0 1 tcp 1040 ------- 0 0.0 1.0 95 183
+ 1.80272 1 0 ack 40 ------- 0 1.0 0.0 95 204
- 1.80272 1 0 ack 40 ------- 0 1.0 0.0 95 204
r 1.81088 1 0 ack 40 ------- 0 1.0 0.0 89 186
+ 1.81088 0 1 tcp 1040 ------- 0 0.0 1.0 109 205
- 1.81088 0 1 tcp 1040 ------- 0 0.0 1.0 109 205
r 1.81104 0 1 tcp 1040 ------- 0 0.0 1.0 96 185
+ 1.81104 1 0 ack 40 ------- 0 1.0 0.0 96 206
- 1.81104 1 0 ack 40 ------- 0 1.0 0.0 96 206
r 1.8192 1 0 ack 40 ------- 0 1.0 0.0 90 188
+ 1.8192 0 1 tcp 1040 ------- 0 0.0 1.0 110 207
- 1.8192 0 1 tcp 1040 ------- 0 0.0 1.0 110 207
r 1.81936 0 1 tcp 1040 ------- 0 0.0 1.0 97 187
+ 1.81936 1 0 ack 40 ------- 0 1.0 0.0 97 208
- 1.81936 1 0 ack 40 ------- 0 1.0 0.0 97 208
r 1.82768 0 1 tcp 1040 ------- 0 0.0 1.0 98 189
+ 1.82768 1 0 ack 40 ------- 0 1.0 0.0 98 209
- 1.82768 1 0 ack 40 ------- 0 1.0 0.0 98 209
r 1.836 0 1 tcp 1040 ------- 0 0.0 1.0 99 190
+ 1.836 1 0 ack 40 ------- 0 1.0 0.0 99 210
- 1.836 1 0 ack 40 ------- 0 1.0 0.0 99 210
r 1.84432 0 1 tcp 1040 ------- 0 0.0 1.0 100 191
+ 1.84432 1 0 ack 40 ------- 0 1.0 0.0 100 211
- 1.84432 1 0 ack 40 ------- 0 1.0 0.0 100 211
r 1.85264 0 1 tcp 1040 ------- 0 0.0 1.0 101 192
+ 1.85264 1 0 ack 40 ------- 0 1.0 0.0 101 212
- 1.85264 1 0 ack 40 ------- 0 1.0 0.0 101 212
r 1.86096 0 1 tcp 1040 ------- 0 0.0 1.0 102 193
+ 1.86096 1 0 ack 40 ------- 0 1.0 0.0 102 213
- 1.86096 1 0 ack 40 ------- 0 1.0 0.0 102 213
r 1.86928 0 1 tcp 1040 ------- 0 0.0 1.0 103 194
+ 1.86928 1 0 ack 40 ------- 0 1.0 0.0 103 214
- 1.86928 1 0 ack 40 ------- 0 1.0 0.0 103 214
r 1.86976 1 0 ack 40 ------- 0 1.0 0.0 91 196
+ 1.86976 0 1 tcp 1040 ------- 0 0.0 1.0 111 215
- 1.86976 0 1 tcp 1040 ------- 0 0.0 1.0 111 215
r 1.8776 0 1 tcp 1040 ------- 0 0.0 1.0 104 195
+ 1.8776 1 0 ack 40 ------- 0 1.0 0.0 104 216
- 1.8776 1 0 ack 40 ------- 0 1.0 0.0 104 216
r 1.87808 1 0 ack 40 ------- 0 1.0 0.0 92 198
+ 1.87808 0 1 tcp 1040 ------- 0 0.0 1.0 112 217
- 1.87808 0 1 tcp 1040 ------- 0 0.0 1.0 112 217
r 1.88592 0 1 tcp 1040 ------- 0 0.0 1.0 105 197
+ 1.88592 1 0 ack 40 ------- 0 1.0 0.0 105 218
- 1.88592 1 0 ack 40 ------- 0 1.0 0.0 105 218
r 1.8864 1 0 ack 40 ------- 0 1.0 0.0 93 200
+ 1.8864 0 1 tcp 1040 ------- 0 0.0 1.0 113 219
- 1.8864 0 1 tcp 1040 ------- 0 0.0 1.0 113 219
r 1.89424 0 1 tcp 1040 ------- 0 0.0 1.0 106 199
+ 1.89424 1 0 ack 40 ------- 0 1.0 0.0 106 220
- 1.89424 1 0 ack 40 ------- 0 1.0 0.0 106 220
r 1.89472 1 0 ack 40 ------- 0 1.0 0.0 94 202
+ 1.89472 0 1 tcp 1040 ------- 0 0.0 1.0 114 221
- 1.89472 0 1 tcp 1040 ------- 0 0.0 1.0 114 221
r 1.90256 0 1 tcp 1040 ------- 0 0.0 1.0 107 201
+ 1.90256 1 0 ack 40 ------- 0 1.0 0.0 107 222